LAMMPS data file via write_data, version 5 Nov 2016, timestep = 1000000

6255 atoms
3 atom types
6125 bonds
1 bond types

-1.4999999999787406e-04 4.0001409999999993e+01 xlo xhi
-1.4999999999787406e-04 4.0001409999999993e+01 ylo yhi
-1.4999999999787406e-04 4.0001409999999993e+01 zlo zhi

Masses

1 5
2 1
3 565.487

Pair Coeffs # lj/expand

1 1 1 0
2 0 1 0
3 1 6 0

Bond Coeffs # fene

1 30 1.5 1 1

Atoms # hybrid

3935 1 1.3129546243693611e+01 1.7040966727313279e+01 3.0618769058575919e+00 79 0.0000000000000000e+00 5.0000000000000000e+00 3 1 3
666 1 7.2874817112370183e+00 4.0599682802345907e+00 5.5605441296500802e+00 14 0.0000000000000000e+00 5.0000000000000000e+00 4 2 4
1061 1 1.4917229708740514e+01 2.2848215327252430e+00 1.5716082911097828e+01 22 0.0000000000000000e+00 5.0000000000000000e+00 5 6 3
29 1 5.2355880935760730e+00 1.3473758799902800e+01 8.7508832505310643e+00 1 0.0000000000000000e+00 5.0000000000000000e+00 2 1 0
2311 1 1.9590455199640601e+01 1.7258865527400999e+01 7.8707112387665941e+00 47 0.0000000000000000e+00 5.0000000000000000e+00 3 3 3
3311 1 1.3453380132107056e+00 7.5499605495744984e+00 1.4408712313928769e+01 67 0.0000000000000000e+00 5.0000000000000000e+00 3 5 2
2340 1 1.1393068456176774e+01 1.2958568453825690e+01 1.1137417880551462e+01 47 0.0000000000000000e+00 5.0000000000000000e+00 3 3 3
4179 1 1.2981290859989590e+01 5.4467771563825353e+00 1.8058392009828662e+01 84 0.0000000000000000e+00 5.0000000000000000e+00 4 4 5
3928 1 9.8808636075774068e+00 1.5170257150603064e+01 4.8993597668661986e+00 79 0.0000000000000000e+00 5.0000000000000000e+00 3 1 3
41 1 4.3705837243840904e+00 8.0181960035939497e+00 8.4974790284179313e+00 1 0.0000000000000000e+00 5.0000000000000000e+00 2 1 0
4911 1 9.7139601452774738e+00 7.0639717852503932e+00 1.7851862390591197e+01 99 0.0000000000000000e+00 5.0000000000000000e+00 2 3 5
1876 1 1.5874041088013520e+01 1.9619009546599059e+01 1.2385164306737835e+01 38 0.0000000000000000e+00 5.0000000000000000e+00 2 4 3
5092 1 1.8493750359365816e+01 1.4902383994332972e+01 1.3984031339464700e+01 102 0.0000000000000000e+00 5.0000000000000000e+00 3 2 4
2012 1 5.5939526033131832e+00 1.8852498502367041e+01 1.6729484157013975e+01 41 0.0000000000000000e+00 5.0000000000000000e+00 2 4 6
4005 1 5.0047698779501513e+00 7.9009242234559256e+00 1.0127843302230504e+00 81 0.0000000000000000e+00 5.0000000000000000e+00 3 4 5
2475 1 8.7255326830120534e+00 1.4539292403728641e+01 1.6684774751828687e+01 50 0.0000000000000000e+00 5.0000000000000000e+00 3 2 3
2476 1 9.7143349030096537e+00 1.4541346965731933e+01 1.6489980411505680e+01 50 0.0000000000000000e+00 5.0000000000000000e+00 3 2 3
4018 1 3.0998901205622316e+00 8.4830685244458586e+00 4.4517004310479946e-01 81 0.0000000000000000e+00 5.0000000000000000e+00 3 4 5
190 1 9.8919612819330087e+00 1.7618309503387167e+01 1.9105178195549946e+01 4 0.0000000000000000e+00 5.0000000000000000e+00 5 2 1
3920 1 7.0212407150729703e+00 1.1797075532206286e+01 5.7703484448399571e+00 79 0.0000000000000000e+00 5.0000000000000000e+00 3 1 3
2448 1 1.8239035713214609e+01 1.6609046100884427e+01 1.9371263218727513e+01 49 0.0000000000000000e+00 5.0000000000000000e+00 2 4 4
2338 1 1.2780903267899355e+01 1.2654861707370245e+01 1.1971536800522735e+01 47 0.0000000000000000e+00 5.0000000000000000e+00 3 3 3
4521 1 1.6612032964733938e+01 8.0337675458820190e-01 7.0252314804498506e-01 91 0.0000000000000000e+00 5.0000000000000000e+00 3 5 4
4532 1 1.3157182036015545e+01 7.4386550142079677e-01 5.5503796084753736e+00 91 0.0000000000000000e+00 5.0000000000000000e+00 3 5 4
4549 1 1.5317523533098774e+01 8.4827648901636266e-01 1.1239819774736215e+01 91 0.0000000000000000e+00 5.0000000000000000e+00 3 5 4
663 1 5.4188008776705407e+00 3.1829125577705049e+00 5.7383813388160787e+00 14 0.0000000000000000e+00 5.0000000000000000e+00 4 2 4
5100 1 1.6050030870772591e+01 1.6000638168805523e+01 1.3355463157366597e+01 102 0.0000000000000000e+00 5.0000000000000000e+00 3 2 4
4865 1 1.3627511971641235e+01 7.6258290502142474e+00 1.9986510289720594e+00 98 0.0000000000000000e+00 5.0000000000000000e+00 3 3 3
3312 1 1.5089453412539326e+00 6.7523287859861920e+00 1.3876907922676956e+01 67 0.0000000000000000e+00 5.0000000000000000e+00 3 5 2
2326 1 1.9716774337600711e+01 1.1170108754923611e+01 1.1710145415418294e+01 47 0.0000000000000000e+00 5.0000000000000000e+00 3 3 3
1010 1 1.6626555371666534e+00 1.5920362510630094e+01 4.8578112970481850e+00 21 0.0000000000000000e+00 5.0000000000000000e+00 3 5 2
4897 1 1.4936501365111539e+01 9.9863180333531432e+00 3.1447261828459232e+00 98 0.0000000000000000e+00 5.0000000000000000e+00 3 3 3
20 1 3.8571469801123148e-01 1.2812747689556826e+01 5.2740051764078029e+00 1 0.0000000000000000e+00 5.0000000000000000e+00 2 1 0
4187 1 1.2435092544329223e+01 7.0477424540000113e+00 1.2329640396311831e+01 84 0.0000000000000000e+00 5.0000000000000000e+00 4 4 5
4550 1 1.4697388494849033e+01 1.3760646634570892e+00 1.1830381314579011e+01 91 0.0000000000000000e+00 5.0000000000000000e+00 3 5 4
3344 1 6.2133298535669779e-01 5.6380943970815371e+00 5.9792385747518502e+00 67 0.0000000000000000e+00 5.0000000000000000e+00 3 5 2
2469 1 8.9507138438836673e+00 1.1756824134860791e+01 1.6448096192428640e+01 50 0.0000000000000000e+00 5.0000000000000000e+00 3 2 3
3913 1 1.0739131703579776e+01 1.4234135848492537e+01 6.7333704663285499e+00 79 0.0000000000000000e+00 5.0000000000000000e+00 3 1 3
4892 1 1.4563857846460124e+01 1.0272563666641410e+01 7.6622266025177443e-01 98 0.0000000000000000e+00 5.0000000000000000e+00 3 3 3
1900 1 9.2475915699377662e+00 1.7581252952323741e+01 7.9623953285650337e+00 38 0.0000000000000000e+00 5.0000000000000000e+00 2 4 3
4181 1 1.1934919588816589e+01 6.0102873761400941e+00 1.6578311955863271e+01 84 0.0000000000000000e+00 5.0000000000000000e+00 4 4 5
4497 1 8.1044924452383427e+00 1.6351942547074618e+01 2.2044196711981097e+00 90 0.0000000000000000e+00 5.0000000000000000e+00 6 3 6
5050 1 1.6922463945869762e+01 5.2798165077290893e+00 1.3999971258891225e+01 101 0.0000000000000000e+00 5.0000000000000000e+00 4 3 4
1059 1 1.4454626874341972e+01 2.5004079556453687e+00 1.4238915073578315e+01 22 0.0000000000000000e+00 5.0000000000000000e+00 5 6 3
4460 1 1.7363374352220468e+01 1.4505850294016339e+01 2.5267002849187675e-01 90 0.0000000000000000e+00 5.0000000000000000e+00 6 3 6
4548 1 1.4907016779862804e+01 4.2785675184375149e-01 1.0429409281783700e+01 91 0.0000000000000000e+00 5.0000000000000000e+00 3 5 4
1012 1 1.2383304858854498e+00 1.7141756682862685e+01 4.7285408046146626e+00 21 0.0000000000000000e+00 5.0000000000000000e+00 3 5 2
1954 1 1.9194080464433243e+00 6.7677556556836715e-01 2.3596475752136077e+00 40 0.0000000000000000e+00 5.0000000000000000e+00 4 5 3
3904 1 1.2147501097785643e+01 1.0552075018651664e+01 1.0273883530322054e+01 79 0.0000000000000000e+00 5.0000000000000000e+00 3 1 3
4494 1 8.9019066741554909e+00 1.4386319106207484e+01 9.6762052061996506e-01 90 0.0000000000000000e+00 5.0000000000000000e+00 6 3 6
1889 1 1.4519728225694429e+01 1.6827705833736132e+01 1.1608282515828950e+01 38 0.0000000000000000e+00 5.0000000000000000e+00 2 4 3
699 1 3.0754960914547782e+00 1.7079389333957629e+01 7.6917483778208542e+00 14 0.0000000000000000e+00 5.0000000000000000e+00 4 2 4
4173 1 1.4997250304665473e+01 1.8880946400038741e+00 1.9851197332082208e+01 84 0.0000000000000000e+00 5.0000000000000000e+00 4 4 5
5016 1 8.7087407626236431e+00 5.8786705166371611e-01 7.3684911201204102e+00 101 0.0000000000000000e+00 5.0000000000000000e+00 4 3 4
48 1 5.6416069327643328e+00 4.8270811204012034e+00 6.0632697844158026e+00 1 0.0000000000000000e+00 5.0000000000000000e+00 2 1 0
2005 1 8.8705643768791607e+00 1.6106649340539153e+01 1.5232105081671278e+01 41 0.0000000000000000e+00 5.0000000000000000e+00 2 4 6
1887 1 1.4666949312475403e+01 1.7140681873741084e+01 1.2667714884682084e+01 38 0.0000000000000000e+00 5.0000000000000000e+00 2 4 3
5837 1 1.6710293904452577e+01 9.4401917949599667e+00 7.1331816706167404e+00 117 0.0000000000000000e+00 5.0000000000000000e+00 4 5 5
669 1 7.3267172702425523e+00 5.4553652312452927e+00 4.7042570763353728e+00 14 0.0000000000000000e+00 5.0000000000000000e+00 4 2 4
1868 1 1.8676254467727073e+01 1.8857252867566800e+01 7.5299305915969521e+00 38 0.0000000000000000e+00 5.0000000000000000e+00 2 4 3
24 1 2.8471951011866246e+00 1.3787445264546351e+01 6.3208181320642165e+00 1 0.0000000000000000e+00 5.0000000000000000e+00 2 1 0
4907 1 7.6824473301278724e+00 8.0962819086664037e+00 1.5574776253558827e+01 99 0.0000000000000000e+00 5.0000000000000000e+00 2 3 5
2330 1 1.6772826132225749e+01 1.1571029393583473e+01 1.0045283986667199e+01 47 0.0000000000000000e+00 5.0000000000000000e+00 3 3 3
45 1 4.4374254810722702e+00 5.9725998893780679e+00 7.2787487778803692e+00 1 0.0000000000000000e+00 5.0000000000000000e+00 2 1 0
5739 1 1.7348101390639151e+01 2.6910314600521024e+00 1.9362951519318973e+01 115 0.0000000000000000e+00 5.0000000000000000e+00 6 3 3
691 1 5.8508783960755508e+00 1.6940866994277368e+01 6.6604061276776028e+00 14 0.0000000000000000e+00 5.0000000000000000e+00 4 2 4
659 1 3.0185668635188607e+00 3.0580724754599378e+00 5.9164168015560694e+00 14 0.0000000000000000e+00 5.0000000000000000e+00 4 2 4
3316 1 1.8023829882842306e+00 4.6063794216104430e+00 1.3215204419193594e+01 67 0.0000000000000000e+00 5.0000000000000000e+00 3 5 2
1893 1 1.1973168326738831e+01 1.7151223440577684e+01 1.0413054283131858e+01 38 0.0000000000000000e+00 5.0000000000000000e+00 2 4 3
4476 1 1.3997234779760461e+01 1.4105699664055082e+01 9.2329386669144498e-01 90 0.0000000000000000e+00 5.0000000000000000e+00 6 3 6
25 1 3.5307880725691132e+00 1.3117731382140555e+01 6.0561784866832813e+00 1 0.0000000000000000e+00 5.0000000000000000e+00 2 1 0
2344 1 9.1525552382067996e+00 1.2728478144187557e+01 8.5898087300998789e+00 47 0.0000000000000000e+00 5.0000000000000000e+00 3 3 3
26 1 4.0898336110674407e+00 1.2740954396366650e+01 6.8416977897931455e+00 1 0.0000000000000000e+00 5.0000000000000000e+00 2 1 0
1009 1 8.4047244955018852e-01 1.5843830274793280e+01 5.3467141276657548e+00 21 0.0000000000000000e+00 5.0000000000000000e+00 3 5 2
1060 1 1.5135788088383837e+01 2.2270390812598175e+00 1.4842899608999119e+01 22 0.0000000000000000e+00 5.0000000000000000e+00 5 6 3
2348 1 7.7223998071428701e+00 1.4040211071315943e+01 7.9093220345533091e+00 47 0.0000000000000000e+00 5.0000000000000000e+00 3 3 3
2472 1 8.6727207024249733e+00 1.2863663435765323e+01 1.8190096628845517e+01 50 0.0000000000000000e+00 5.0000000000000000e+00 3 2 3
1052 1 1.1373398275109015e+01 3.3576247740490359e+00 1.5632230963033486e+01 22 0.0000000000000000e+00 5.0000000000000000e+00 5 6 3
665 1 7.0137180617427219e+00 3.1371871174869272e+00 5.8365043957731402e+00 14 0.0000000000000000e+00 5.0000000000000000e+00 4 2 4
3638 1 9.9480918501314197e-01 4.2247527262585871e+00 2.5441527432125963e+00 73 0.0000000000000000e+00 5.0000000000000000e+00 6 6 2
4914 1 9.6733409398833103e+00 4.9068788548638063e+00 1.7371507918083008e+01 99 0.0000000000000000e+00 5.0000000000000000e+00 2 3 5
1886 1 1.4463013336845210e+01 1.7869191489081928e+01 1.3293236551729898e+01 38 0.0000000000000000e+00 5.0000000000000000e+00 2 4 3
2009 1 7.2946589799957220e+00 1.7769849392964769e+01 1.7066068100475189e+01 41 0.0000000000000000e+00 5.0000000000000000e+00 2 4 6
2466 1 1.0053565566053434e+01 1.3343639427838315e+01 1.4434451356751746e+01 50 0.0000000000000000e+00 5.0000000000000000e+00 3 2 3
46 1 4.1291843711790408e+00 5.2658614259657428e+00 6.7737101302239235e+00 1 0.0000000000000000e+00 5.0000000000000000e+00 2 1 0
5093 1 1.8349957115201331e+01 1.4851234514405245e+01 1.2995074587754550e+01 102 0.0000000000000000e+00 5.0000000000000000e+00 3 2 4
1318 1 1.4954122237148257e+01 1.9621461643561869e+01 3.2832216039942872e+00 27 0.0000000000000000e+00 5.0000000000000000e+00 2 2 3
4196 1 1.4439159350621727e+01 6.1051669325078857e+00 1.0225240838846831e+01 84 0.0000000000000000e+00 5.0000000000000000e+00 4 4 5
9 1 1.7079725874753107e-02 7.1740138098521475e+00 3.6203830396688694e+00 1 0.0000000000000000e+00 5.0000000000000000e+00 2 1 0
3939 1 1.5286981376348979e+01 1.7008087432352628e+01 1.7192641411202210e+00 79 0.0000000000000000e+00 5.0000000000000000e+00 3 1 3
3328 1 7.3663630230358124e-01 1.5210482920201291e+00 1.0776975943132070e+01 67 0.0000000000000000e+00 5.0000000000000000e+00 3 5 2
403 1 1.3509301391195869e+01 9.2429494834719979e+00 1.5668828027964670e+01 9 0.0000000000000000e+00 5.0000000000000000e+00 5 4 4
4008 1 5.5360629454993182e+00 5.7514938281246630e+00 2.8427973448487404e-01 81 0.0000000000000000e+00 5.0000000000000000e+00 3 4 5
1956 1 1.6375111034524812e+00 1.6737747309637117e+00 1.4457104784186452e+00 40 0.0000000000000000e+00 5.0000000000000000e+00 4 5 3
4523 1 1.6388212623660802e+01 1.5424030977703396e+00 1.5765041048197999e+00 91 0.0000000000000000e+00 5.0000000000000000e+00 3 5 4
4484 1 1.0351937412896472e+01 1.4066479089665522e+01 2.7672438840434603e+00 90 0.0000000000000000e+00 5.0000000000000000e+00 6 3 6
34 1 4.0197851373321054e+00 1.1288879882616467e+01 8.9937347589015193e+00 1 0.0000000000000000e+00 5.0000000000000000e+00 2 1 0
2013 1 6.3084166519509779e+00 1.9594699893099349e+01 1.6749902251015968e+01 41 0.0000000000000000e+00 5.0000000000000000e+00 2 4 6
2346 1 8.1151437829832744e+00 1.2649725458396150e+01 7.9506250527030033e+00 47 0.0000000000000000e+00 5.0000000000000000e+00 3 3 3
3322 1 2.1255303117416280e+00 1.1877540032449383e+00 1.3847347219762971e+01 67 0.0000000000000000e+00 5.0000000000000000e+00 3 5 2
3342 1 1.4993963865908209e+00 4.8377303757341110e+00 6.5774609981221355e+00 67 0.0000000000000000e+00 5.0000000000000000e+00 3 5 2
4862 1 1.2737283847773423e+01 7.8233409634920141e+00 2.6196499245671828e-01 98 0.0000000000000000e+00 5.0000000000000000e+00 3 3 3
4198 1 1.5880072345634522e+01 7.3014014289314497e+00 9.7667788181350357e+00 84 0.0000000000000000e+00 5.0000000000000000e+00 4 4 5
33 1 4.4333305597049986e+00 1.2022394395269439e+01 9.3993034998227465e+00 1 0.0000000000000000e+00 5.0000000000000000e+00 2 1 0
1880 1 1.4393281873193891e+01 1.9363443932885545e+01 1.5093156544916480e+01 38 0.0000000000000000e+00 5.0000000000000000e+00 2 4 3
3334 1 9.3489578335990509e-01 1.8430295849557448e+00 8.9596777060513837e+00 67 0.0000000000000000e+00 5.0000000000000000e+00 3 5 2
4866 1 1.3239381560777399e+01 8.1825164453764732e+00 2.6453027227459822e+00 98 0.0000000000000000e+00 5.0000000000000000e+00 3 3 3
2010 1 6.4569120196584491e+00 1.7218229446549113e+01 1.6766627698025221e+01 41 0.0000000000000000e+00 5.0000000000000000e+00 2 4 6
2489 1 1.5990414906537715e+01 1.5858561746516784e+01 1.8902358267325607e+01 50 0.0000000000000000e+00 5.0000000000000000e+00 3 2 3
5740 1 1.7913413708337824e+01 3.5248178710953502e+00 1.9264881957426674e+01 115 0.0000000000000000e+00 5.0000000000000000e+00 6 3 3
5738 1 1.6902757689554385e+01 1.8417820167725378e+00 1.9176838353083454e+01 115 0.0000000000000000e+00 5.0000000000000000e+00 6 3 3
3941 1 1.5742390655035924e+01 1.6844191542523532e+01 3.1365753226506166e+00 79 0.0000000000000000e+00 5.0000000000000000e+00 3 1 3
1320 1 1.6554777654700910e+01 1.9066153244682653e+01 3.4572140328567724e+00 27 0.0000000000000000e+00 5.0000000000000000e+00 2 2 3
1057 1 1.2682096670990701e+01 3.1683230042843729e+00 1.4332350689501897e+01 22 0.0000000000000000e+00 5.0000000000000000e+00 5 6 3
1957 1 7.6710851234858091e-01 1.2302276253858027e+00 1.2801420787895481e+00 40 0.0000000000000000e+00 5.0000000000000000e+00 4 5 3
5029 1 1.2778285770682336e+01 5.0309707493628331e+00 1.1031529377664981e+01 101 0.0000000000000000e+00 5.0000000000000000e+00 4 3 4
655 1 4.6258088580695160e+00 3.3855738515053950e+00 2.9689306960863147e+00 14 0.0000000000000000e+00 5.0000000000000000e+00 4 2 4
1890 1 1.4183726419818493e+01 1.6911421236143990e+01 1.0716964626605778e+01 38 0.0000000000000000e+00 5.0000000000000000e+00 2 4 3
19 1 4.7665343600182897e-01 1.2485344847412561e+01 4.3512658333318370e+00 1 0.0000000000000000e+00 5.0000000000000000e+00 2 1 0
5834 1 1.7453363383370078e+01 9.5506618621858514e+00 4.9655235239713020e+00 117 0.0000000000000000e+00 5.0000000000000000e+00 4 5 5
38 1 5.3659730108386743e+00 9.6754503021930862e+00 8.6626696960010019e+00 1 0.0000000000000000e+00 5.0000000000000000e+00 2 1 0
683 1 6.2819515526175804e+00 1.2739782687003840e+01 4.6033323514786657e+00 14 0.0000000000000000e+00 5.0000000000000000e+00 4 2 4
3908 1 1.2292303630247702e+01 1.1632419178758752e+01 8.3034495221325386e+00 79 0.0000000000000000e+00 5.0000000000000000e+00 3 1 3
4869 1 1.1489038311598598e+01 6.6571123786674553e+00 2.6328996219166374e+00 98 0.0000000000000000e+00 5.0000000000000000e+00 3 3 3
4479 1 1.3050235147972694e+01 1.5687117271406226e+01 8.0701215170833673e-01 90 0.0000000000000000e+00 5.0000000000000000e+00 6 3 6
5842 1 1.6610604878885205e+01 1.1400878352749963e+01 5.3495243049173027e+00 117 0.0000000000000000e+00 5.0000000000000000e+00 4 5 5
4003 1 5.4180249696493732e+00 8.7211380234125837e+00 1.9947702237767035e+00 81 0.0000000000000000e+00 5.0000000000000000e+00 3 4 5
2461 1 1.0221981488909075e+01 1.4565363375172463e+01 1.2700740420226204e+01 50 0.0000000000000000e+00 5.0000000000000000e+00 3 2 3
2499 1 1.1946907891618597e+01 1.6452434498817166e+01 1.5820685167386275e+01 50 0.0000000000000000e+00 5.0000000000000000e+00 3 2 3
2482 1 1.2830463895527831e+01 1.4211039245279538e+01 1.8063334665900424e+01 50 0.0000000000000000e+00 5.0000000000000000e+00 3 2 3
406 1 1.5346036253575042e+01 9.6334938415329390e+00 1.4208024590432821e+01 9 0.0000000000000000e+00 5.0000000000000000e+00 5 4 4
4864 1 1.3379820982646399e+01 8.3999247005009288e+00 1.3306708603005435e+00 98 0.0000000000000000e+00 5.0000000000000000e+00 3 3 3
4915 1 8.8358757571058550e+00 4.3787127293608510e+00 1.7357278467080718e+01 99 0.0000000000000000e+00 5.0000000000000000e+00 2 3 5
4183 1 1.2495805967743651e+01 6.6650943913120120e+00 1.4897987677535090e+01 84 0.0000000000000000e+00 5.0000000000000000e+00 4 4 5
4893 1 1.3922411802653192e+01 9.4985818656743533e+00 8.4253008255471018e-01 98 0.0000000000000000e+00 5.0000000000000000e+00 3 3 3
3923 1 8.2018994492710817e+00 1.3500625294124582e+01 6.5429968852914975e+00 79 0.0000000000000000e+00 5.0000000000000000e+00 3 1 3
2335 1 1.3503249369941871e+01 1.2609880546703353e+01 9.7292404119287603e+00 47 0.0000000000000000e+00 5.0000000000000000e+00 3 3 3
5845 1 1.5174398276101705e+01 1.1272448680940467e+01 3.1019269933033491e+00 117 0.0000000000000000e+00 5.0000000000000000e+00 4 5 5
3337 1 2.1989867139686954e+00 3.7219536043946593e+00 8.7544329614368426e+00 67 0.0000000000000000e+00 5.0000000000000000e+00 3 5 2
4528 1 1.4210263288570820e+01 1.9260549513815231e+00 2.5604866875983001e+00 91 0.0000000000000000e+00 5.0000000000000000e+00 3 5 4
3903 1 1.1664105757416996e+01 1.0454097336092985e+01 9.4508482936274252e+00 79 0.0000000000000000e+00 5.0000000000000000e+00 3 1 3
2327 1 1.8889699055672214e+01 1.1633150561111538e+01 1.1769954646617553e+01 47 0.0000000000000000e+00 5.0000000000000000e+00 3 3 3
5545 1 5.9777016518053712e+00 2.0747186413783258e-01 1.1535153072321387e+01 111 0.0000000000000000e+00 5.0000000000000000e+00 2 4 6
1016 1 2.2064287095124659e+00 1.9480622531013637e+01 4.5061480425971832e+00 21 0.0000000000000000e+00 5.0000000000000000e+00 3 5 2
1017 1 2.0918746637591288e+00 1.9490020044360257e+01 3.5896829414933911e+00 21 0.0000000000000000e+00 5.0000000000000000e+00 3 5 2
2449 1 1.7922859320880264e+01 1.6018981898749772e+01 1.8684585442301010e+01 49 0.0000000000000000e+00 5.0000000000000000e+00 2 4 4
685 1 5.5514585871903588e+00 1.3789476738377802e+01 6.0106809124011908e+00 14 0.0000000000000000e+00 5.0000000000000000e+00 4 2 4
2488 1 1.6095646191993261e+01 1.5550802709593311e+01 1.7987105903055106e+01 50 0.0000000000000000e+00 5.0000000000000000e+00 3 2 3
187 1 9.8041005045385763e+00 1.6209700376590526e+01 1.7221657818430689e+01 4 0.0000000000000000e+00 5.0000000000000000e+00 5 2 1
2471 1 8.0914395105235979e+00 1.2101453451242474e+01 1.7976911589433175e+01 50 0.0000000000000000e+00 5.0000000000000000e+00 3 2 3
4185 1 1.2104151553638491e+01 5.9163915049658886e+00 1.3355022526183459e+01 84 0.0000000000000000e+00 5.0000000000000000e+00 4 4 5
3940 1 1.5045896507057860e+01 1.7274104297239322e+01 2.6022721076492261e+00 79 0.0000000000000000e+00 5.0000000000000000e+00 3 1 3
3901 1 1.0821303788194511e+01 1.0595301948512592e+01 8.1190457980211228e+00 79 0.0000000000000000e+00 5.0000000000000000e+00 3 1 3
2479 1 1.1521717866702783e+01 1.4171390972074956e+01 1.5976796059862256e+01 50 0.0000000000000000e+00 5.0000000000000000e+00 3 2 3
2446 1 1.9420081619061701e+01 1.5757553234142200e+01 1.9955844921120978e+01 49 0.0000000000000000e+00 5.0000000000000000e+00 2 4 4
3308 1 1.2080848358578709e+00 7.9650376865303212e+00 1.2279693618817126e+01 67 0.0000000000000000e+00 5.0000000000000000e+00 3 5 2
4861 1 1.2275754736856813e+01 8.6941721635186155e+00 9.1639720746259673e-02 98 0.0000000000000000e+00 5.0000000000000000e+00 3 3 3
4004 1 5.7793139536108198e+00 7.9742934822254874e+00 1.5621979437460831e+00 81 0.0000000000000000e+00 5.0000000000000000e+00 3 4 5
4188 1 1.2715918092471455e+01 7.0587546645114756e+00 1.1425891989862729e+01 84 0.0000000000000000e+00 5.0000000000000000e+00 4 4 5
2333 1 1.4654719072737041e+01 1.3351755489279817e+01 9.7989543478252035e+00 47 0.0000000000000000e+00 5.0000000000000000e+00 3 3 3
4540 1 1.6684419826061873e+01 8.2648077433308220e-01 6.3887863504528966e+00 91 0.0000000000000000e+00 5.0000000000000000e+00 3 5 4
5528 1 8.3272062220188854e+00 3.1579125115238693e-01 1.7643988763301618e+01 111 0.0000000000000000e+00 5.0000000000000000e+00 2 4 6
4927 1 5.1460417312173883e+00 6.5787601594676692e-01 1.5631686827969478e+01 99 0.0000000000000000e+00 5.0000000000000000e+00 2 3 5
3325 1 9.8126592367256205e-01 5.3100640823796297e-01 1.3009149411998292e+01 67 0.0000000000000000e+00 5.0000000000000000e+00 3 5 2
4174 1 1.4745407917559616e+01 2.8087034662381978e+00 1.9550179709602293e+01 84 0.0000000000000000e+00 5.0000000000000000e+00 4 4 5
674 1 6.1165264454504111e+00 8.0705248519687363e+00 6.0671999049071070e+00 14 0.0000000000000000e+00 5.0000000000000000e+00 4 2 4
4659 1 7.3125713340750165e-01 2.5716533496058571e+00 1.0119396270751412e+01 94 0.0000000000000000e+00 5.0000000000000000e+00 5 5 6
1928 1 1.0560480003756156e+01 1.9839854614394422e+01 5.0987361468976662e+00 39 0.0000000000000000e+00 5.0000000000000000e+00 4 2 3
2460 1 1.0171737814440416e+01 1.4807702296320377e+01 1.1809393143314633e+01 50 0.0000000000000000e+00 5.0000000000000000e+00 3 2 3
3350 1 3.7641373545180434e-01 5.8605938296088933e+00 2.4157012361827399e+00 67 0.0000000000000000e+00 5.0000000000000000e+00 3 5 2
3911 1 1.1740773394225041e+01 1.3079785717007935e+01 6.8850227971095457e+00 79 0.0000000000000000e+00 5.0000000000000000e+00 3 1 3
4458 1 1.8803860809910745e+01 1.5180021554522998e+01 2.5971255562425949e-01 90 0.0000000000000000e+00 5.0000000000000000e+00 6 3 6
4871 1 1.3216089022455384e+01 5.9452248162779533e+00 2.2464831540134846e+00 98 0.0000000000000000e+00 5.0000000000000000e+00 3 3 3
5450 1 7.5951720148859598e+00 1.8808105041292706e+01 1.3653202086657611e+01 109 0.0000000000000000e+00 5.0000000000000000e+00 4 3 3
664 1 6.2135166842547145e+00 3.3736129315511407e+00 5.2831407410585722e+00 14 0.0000000000000000e+00 5.0000000000000000e+00 4 2 4
1054 1 1.2255510867592447e+01 4.4493119386888278e+00 1.4448947950571197e+01 22 0.0000000000000000e+00 5.0000000000000000e+00 5 6 3
2462 1 9.6641534582946544e+00 1.4163856856401448e+01 1.3391782872529555e+01 50 0.0000000000000000e+00 5.0000000000000000e+00 3 2 3
4522 1 1.6829895478288719e+01 1.8186933632236579e+00 7.5262289392879267e-01 91 0.0000000000000000e+00 5.0000000000000000e+00 3 5 4
3336 1 1.3135745703523374e+00 3.6636729617391159e+00 9.0575276467989330e+00 67 0.0000000000000000e+00 5.0000000000000000e+00 3 5 2
1311 1 1.1818796409989972e+01 1.9072193428713231e+01 5.0982153121097742e+00 27 0.0000000000000000e+00 5.0000000000000000e+00 2 2 3
5826 1 1.8890113284083295e+01 9.2729949633394853e+00 4.7439035985153675e+00 117 0.0000000000000000e+00 5.0000000000000000e+00 4 5 5
5821 1 1.9631758133711177e+01 9.0389078712332367e+00 3.2121334024644201e+00 117 0.0000000000000000e+00 5.0000000000000000e+00 4 5 5
689 1 6.3155647901379792e+00 1.5888823608614727e+01 6.8507854714826646e+00 14 0.0000000000000000e+00 5.0000000000000000e+00 4 2 4
3313 1 8.4412022715712565e-01 6.0635208204492210e+00 1.4074445906927966e+01 67 0.0000000000000000e+00 5.0000000000000000e+00 3 5 2
4486 1 8.7024739236154218e+00 1.3507308147011853e+01 3.2661687859603048e+00 90 0.0000000000000000e+00 5.0000000000000000e+00 6 3 6
1867 1 1.8975759249818669e+01 1.9795279340075115e+01 7.5749136409539464e+00 38 0.0000000000000000e+00 5.0000000000000000e+00 2 4 3
3345 1 1.0229853969922704e+00 5.3046469109114351e+00 5.0844042836154282e+00 67 0.0000000000000000e+00 5.0000000000000000e+00 3 5 2
2018 1 3.8920534547307764e+00 1.9452199358550420e+01 1.5287585766383470e+01 41 0.0000000000000000e+00 5.0000000000000000e+00 2 4 6
653 1 3.2562756152996930e+00 2.6675156863710550e+00 2.1981967974467382e+00 14 0.0000000000000000e+00 5.0000000000000000e+00 4 2 4
23 1 2.9279905640095421e+00 1.3488041410446943e+01 5.3041807625644530e+00 1 0.0000000000000000e+00 5.0000000000000000e+00 2 1 0
4009 1 4.7029984661320245e+00 5.2925074962488772e+00 5.0576827078872288e-01 81 0.0000000000000000e+00 5.0000000000000000e+00 3 4 5
2465 1 9.4584697732647740e+00 1.4108956319378210e+01 1.4785450044622314e+01 50 0.0000000000000000e+00 5.0000000000000000e+00 3 2 3
5048 1 1.6766886707012780e+01 6.3624417760441050e+00 1.2530974232757220e+01 101 0.0000000000000000e+00 5.0000000000000000e+00 4 3 4
3932 1 1.1645539811681681e+01 1.5978697020251273e+01 4.5976626731066377e+00 79 0.0000000000000000e+00 5.0000000000000000e+00 3 1 3
1004 1 1.7068519028932047e-01 1.3985612747008503e+01 8.7897336618260162e+00 21 0.0000000000000000e+00 5.0000000000000000e+00 3 5 2
4905 1 7.0081750826903511e+00 8.2157392365638238e+00 1.3939675688992374e+01 99 0.0000000000000000e+00 5.0000000000000000e+00 2 3 5
2328 1 1.8528027045489821e+01 1.1603934153295290e+01 1.0862876847256629e+01 47 0.0000000000000000e+00 5.0000000000000000e+00 3 3 3
4531 1 1.3391365487668757e+01 1.3072571836474309e+00 4.8639337772302174e+00 91 0.0000000000000000e+00 5.0000000000000000e+00 3 5 4
4172 1 1.4202390964770895e+01 1.4197966372813142e+00 1.9478707671868126e+01 84 0.0000000000000000e+00 5.0000000000000000e+00 4 4 5
2484 1 1.3330486817358814e+01 1.5147550897157743e+01 1.8072380285602016e+01 50 0.0000000000000000e+00 5.0000000000000000e+00 3 2 3
3909 1 1.1555766211393230e+01 1.2181149937720383e+01 8.1378603426483167e+00 79 0.0000000000000000e+00 5.0000000000000000e+00 3 1 3
424 1 1.9621158504794625e+01 9.1761358444770025e+00 9.5989016177474262e+00 9 0.0000000000000000e+00 5.0000000000000000e+00 5 4 4
3944 1 1.7327358803801541e+01 1.8457918337455101e+01 3.5453317418264758e+00 79 0.0000000000000000e+00 5.0000000000000000e+00 3 1 3
3918 1 8.3372468882472752e+00 1.0822528541318130e+01 5.1149054778619991e+00 79 0.0000000000000000e+00 5.0000000000000000e+00 3 1 3
5749 1 1.8153359390488184e+01 6.5927312286827604e+00 1.7965736532192949e+01 115 0.0000000000000000e+00 5.0000000000000000e+00 6 3 3
3446 1 1.5930960079152150e+01 1.8974744657582317e+01 1.6598749023665452e+01 69 0.0000000000000000e+00 5.0000000000000000e+00 4 2 4
2332 1 1.5410087073966777e+01 1.2750593083294397e+01 1.0028427222800365e+01 47 0.0000000000000000e+00 5.0000000000000000e+00 3 3 3
4908 1 7.8348002255969780e+00 7.5027390263947442e+00 1.6451382311361527e+01 99 0.0000000000000000e+00 5.0000000000000000e+00 2 3 5
3902 1 1.0735608969334185e+01 1.0349782130455164e+01 9.0909321606383866e+00 79 0.0000000000000000e+00 5.0000000000000000e+00 3 1 3
1870 1 1.8685011072304743e+01 1.8249361305210702e+01 9.1260749387418691e+00 38 0.0000000000000000e+00 5.0000000000000000e+00 2 4 3
196 1 8.2465885465178168e+00 1.9458473051954574e+01 1.9182755059631912e+01 4 0.0000000000000000e+00 5.0000000000000000e+00 5 2 1
1006 1 2.4686195593479543e-01 1.4386345598803521e+01 7.4036316756811402e+00 21 0.0000000000000000e+00 5.0000000000000000e+00 3 5 2
254 1 5.7148045888694277e-01 1.9579545355590927e+01 9.1900516560558749e+00 6 0.0000000000000000e+00 5.0000000000000000e+00 4 1 3
2492 1 1.4406823318106513e+01 1.7833296334327436e+01 1.8158023015077145e+01 50 0.0000000000000000e+00 5.0000000000000000e+00 3 2 3
4749 1 1.4149225589970010e+01 8.2586661558607641e+00 1.8014430986144735e+01 95 0.0000000000000000e+00 5.0000000000000000e+00 4 4 5
1878 1 1.5175211466734822e+01 1.9762583482974467e+01 1.3658161051152772e+01 38 0.0000000000000000e+00 5.0000000000000000e+00 2 4 3
4197 1 1.5350856599556939e+01 6.5413220217518262e+00 1.0165095704322352e+01 84 0.0000000000000000e+00 5.0000000000000000e+00 4 4 5
1315 1 1.4538361334881177e+01 1.8832059921572384e+01 4.4960371971502795e+00 27 0.0000000000000000e+00 5.0000000000000000e+00 2 2 3
2468 1 9.4760012920991947e+00 1.2039392137522333e+01 1.5663358917056375e+01 50 0.0000000000000000e+00 5.0000000000000000e+00 3 2 3
697 1 4.2861454730529678e+00 1.7397982548008855e+01 8.3744243966204337e+00 14 0.0000000000000000e+00 5.0000000000000000e+00 4 2 4
4495 1 8.6120168360072995e+00 1.4730095497000688e+01 1.8526964997036641e+00 90 0.0000000000000000e+00 5.0000000000000000e+00 6 3 6
3315 1 2.2795975155419996e+00 5.4409054253981299e+00 1.3019802517607763e+01 67 0.0000000000000000e+00 5.0000000000000000e+00 3 5 2
4485 1 9.6516294979135449e+00 1.3527159444291632e+01 3.0952211020863527e+00 90 0.0000000000000000e+00 5.0000000000000000e+00 6 3 6
2312 1 1.9415487172869295e+01 1.6414847440417290e+01 8.2439695852457291e+00 47 0.0000000000000000e+00 5.0000000000000000e+00 3 3 3
3910 1 1.2225605787849663e+01 1.2472855127755839e+01 7.4970367933026205e+00 79 0.0000000000000000e+00 5.0000000000000000e+00 3 1 3
4048 1 2.8174573521058730e+00 1.5406993307162971e+01 8.4062900003339180e-01 81 0.0000000000000000e+00 5.0000000000000000e+00 3 4 5